<UPF version="2.0.1">
  <PP_INFO>
    Generated using "atomic" code by A. Dal Corso  v.7.2
    Author: MAHB
    Generation date: 23Mar2026
    Pseudopotential type: USPP
    Element: Ni
    Functional: PBE
    Suggested minimum cutoff for wavefunctions:  67. Ry
    Suggested minimum cutoff for charge density: 412. Ry
    The Pseudo was generated with a Scalar-Relativistic Calculation
    Local Potential by smoothing AE potential with Bessel fncs, cutoff radius:   1.5000
    Pseudopotential contains additional information for GIPAW reconstruction.
    Valence configuration: 
    nl pn  l   occ       Rcut    Rcut US       E pseu
    3S  1  0  2.00      0.800      1.300    -9.788242
    4S  2  0  2.00      0.800      1.300    -1.119636
    5S  3  0  0.00      8.916      9.473    -0.276943
    3P  2  1  6.00      1.000      1.300    -6.875417
    4P  3  1  0.00      1.000      1.300    -0.650012
    5P  4  1  0.00     11.592     12.316    -0.176709
    3D  3  2  8.00      1.000      1.400    -1.880190
    4D  4  2  0.00      9.473     10.420    -0.194161
    Generation configuration:
    3S  1  0  2.00      0.800      1.300    -9.788336
    4S  2  0  2.00      0.800      1.300    -1.119654
    3P  2  1  6.00      1.000      1.300    -6.875513
    4P  3  1  0.00      1.000      1.300     7.000000
    3D  3  2  8.00      1.000      1.400    -1.880273
    3D  3  2  0.00      1.000      1.400     4.000000
    Pseudization used: troullier-martins
    <PP_INPUTFILE>
@input
title='Ni',
zed=28.,
rel=1,
config='1s1 2s2 2p6 3s2 3p6 4s2 3d8 4p0 4d0 5s0 5p0',
iswitch=3,
dft='PBE'
/
@inputp
lpaw=.false.,
use_xsd=.FALSE.,
zval=19,
pseudotype=3,
file_pseudopw='Ni.star1s.pbe-spn-rrkjus_psl.1.0.0.UPF',
author='MAHB',
lloc=-1,
rcloc=1.5,
which_augfun='PSQ',
rmatch_augfun_nc=.true.,
nlcc=.true.,
new_core_ps=.true.,
rcore=0.8,
tm=.true.
lgipaw_reconstruction=.true.,
/
6
3S  1  0  2.00  0.00  0.80  1.30  0.0
4S  2  0  2.00  0.00  0.80  1.30  0.0
3P  2  1  6.00  0.00  1.00  1.30  0.0
4P  3  1  0.00  7.00  1.00  1.30  0.0
3D  3  2  8.00  0.00  1.00  1.40  0.0
3D  3  2  0.00  4.00  1.00  1.40  0.0
@test
/
8
3S  1  0  2.00  0.00  0.80  1.30  0.0
4S  2  0  2.00  0.00  0.80  1.30  0.0
5S  3  0  0.00  0.00  0.80  1.30  0.0
3P  2  1  6.00  0.00  1.00  1.30  0.0
4P  3  1  0.00  7.00  1.00  1.30  0.0
5P  4  1  0.00  7.00  1.00  1.30  0.0
3D  3  2  8.00  0.00  1.00  1.40  0.0
4D  4  2  0.00  4.00  1.00  1.40  0.0
    </PP_INPUTFILE>
  </PP_INFO>
    <!-- END OF HUMAN READABLE SECTION -->
  <PP_HEADER generated="Generated using 'atomic' code by A. Dal Corso  v.7.2" author="MAHB" date="23Mar2026" comment="" element="Ni" pseudo_type="USPP" relativistic="scalar" is_ultrasoft="true" is_paw="false" is_coulomb="false" has_so="false" has_wfc="false" has_gipaw="true" paw_as_gipaw="false" core_correction="true" functional="PBE" z_valence="19.000000000000000" total_psenergy="-392.18059714723921" wfc_cutoff="67.098394170923527" rho_cutoff="412.03696125631200" l_max="2" l_max_rho="4" l_local="-1" mesh_size="1195" number_of_wfc="8" number_of_proj="6"/>
  <PP_MESH mesh="1195" dx="1.2500000000000001E-002" xmin="-7.0000000000000000" rmax="100.00000000000000" zmesh="28.000000000000000">
    <PP_R>
   3.256721305551844E-05   3.297685816675079E-05   3.339165597916365E-05
   3.381167130575907E-05   3.423696977478642E-05   3.466761783999675E-05
   3.510368279102638E-05   3.554523276391112E-05   3.599233675173251E-05
   3.644506461539838E-05   3.690348709455846E-05   3.736767581865781E-05
   3.783770331812893E-05   3.831364303572488E-05   3.879556933799492E-05
   3.928355752690422E-05   3.977768385160012E-05   4.027802552032616E-05
   4.078466071248599E-05   4.129766859085920E-05   4.181712931397052E-05
   4.234312404861474E-05   4.287573498253931E-05   4.341504533728624E-05
   4.396113938119575E-05   4.451410244257320E-05   4.507402092302194E-05
   4.564098231094373E-05   4.621507519520886E-05   4.679638927899857E-05
   4.738501539382113E-05   4.798104551370453E-05   4.858457276956764E-05
   4.919569146377204E-05   4.981449708485710E-05   5.044108632246006E-05
   5.107555708242408E-05   5.171800850209627E-05   5.236854096581796E-05
   5.302725612061025E-05   5.369425689205616E-05   5.436964750038327E-05
   5.505353347674823E-05   5.574602167972615E-05   5.644722031200775E-05
   5.715723893730587E-05   5.787618849747524E-05   5.860418132984736E-05
   5.934133118478335E-05   6.008775324344790E-05   6.084356413580621E-05
   6.160888195884794E-05   6.238382629503999E-05   6.316851823101145E-05
   6.396308037647392E-05   6.476763688337911E-05   6.558231346531811E-05
   6.640723741716433E-05   6.724253763496348E-05   6.808834463607416E-05
   6.894479057956104E-05   6.981200928684525E-05   7.069013626261416E-05
   7.157930871599426E-05   7.247966558199050E-05   7.339134754319496E-05
   7.431449705176891E-05   7.524925835170122E-05   7.619577750134672E-05
   7.715420239624838E-05   7.812468279224589E-05   7.910737032887560E-05
   8.010241855306440E-05   8.110998294312167E-05   8.213022093303343E-05
   8.316329193706121E-05   8.420935737465117E-05   8.526858069565619E-05
   8.634112740587512E-05   8.742716509291368E-05   8.852686345236995E-05
   8.964039431434995E-05   9.076793167031637E-05   9.190965170027499E-05
   9.306573280030352E-05   9.423635561042577E-05   9.542170304283752E-05
   9.662196031048667E-05   9.783731495601315E-05   9.906795688105316E-05
   1.003140783759112E-04   1.015758741496060E-04   1.028535413602944E-04
   1.041472796460774E-04   1.054572911561945E-04   1.067837805826093E-04
   1.081269551919934E-04   1.094870248581122E-04   1.108642020946182E-04
   1.122587020882564E-04   1.136707427324881E-04   1.151005446615366E-04
   1.165483312848624E-04   1.180143288220708E-04   1.194987663382597E-04
   1.210018757798111E-04   1.225238920106334E-04   1.240650528488590E-04
   1.256255991040046E-04   1.272057746145975E-04   1.288058262862761E-04
   1.304260041303694E-04   1.320665613029619E-04   1.337277541444493E-04
   1.354098422195931E-04   1.371130883580773E-04   1.388377586955761E-04
   1.405841227153387E-04   1.423524532902961E-04   1.441430267256985E-04
   1.459561228022881E-04   1.477920248200156E-04   1.496510196423064E-04
   1.515333977408836E-04   1.534394532411550E-04   1.553694839681703E-04
   1.573237914931573E-04   1.593026811806429E-04   1.613064622361666E-04
   1.633354477545955E-04   1.653899547690445E-04   1.674703043004147E-04
   1.695768214075528E-04   1.717098352380423E-04   1.738696790796344E-04
   1.760566904123233E-04   1.782712109610792E-04   1.805135867492434E-04
   1.827841681525947E-04   1.850833099540973E-04   1.874113713993352E-04
   1.897687162526456E-04   1.921557128539579E-04   1.945727341763473E-04
   1.970201578843133E-04   1.994983663927893E-04   2.020077469268967E-04
   2.045486915824495E-04   2.071215973872193E-04   2.097268663629733E-04
   2.123649055882891E-04   2.150361272621628E-04   2.177409487684157E-04
   2.204797927409107E-04   2.232530871295915E-04   2.260612652673481E-04
   2.289047659377280E-04   2.317840334434960E-04   2.346995176760576E-04
   2.376516741857562E-04   2.406409642530524E-04   2.436678549606010E-04
   2.467328192662333E-04   2.498363360768575E-04   2.529788903232902E-04
   2.561609730360250E-04   2.593830814219604E-04   2.626457189420870E-04
   2.659493953901549E-04   2.692946269723313E-04   2.726819363878558E-04
   2.761118529107168E-04   2.795849124723491E-04   2.831016577453748E-04
   2.866626382283986E-04   2.902684103318647E-04   2.939195374650011E-04
   2.976165901238503E-04   3.013601459804118E-04   3.051507899729053E-04
   3.089891143971655E-04   3.128757189991938E-04   3.168112110688664E-04
   3.207962055348256E-04   3.248313250605651E-04   3.289172001417193E-04
   3.330544692045831E-04   3.372437787058647E-04   3.414857832336966E-04
   3.457811456099176E-04   3.501305369936367E-04   3.545346369861076E-04
   3.589941337369138E-04   3.635097240514953E-04   3.680821135000268E-04
   3.727120165276609E-04   3.774001565661662E-04   3.821472661469617E-04
   3.869540870155768E-04   3.918213702475531E-04   3.967498763657967E-04
   4.017403754594166E-04   4.067936473040492E-04   4.119104814837008E-04
   4.170916775141233E-04   4.223380449677364E-04   4.276504036001294E-04
   4.330295834781464E-04   4.384764251095870E-04   4.439917795745390E-04
   4.495765086583571E-04   4.552314849863239E-04   4.609575921599955E-04
   4.667557248952671E-04   4.726267891621764E-04   4.785717023264581E-04
   4.845913932928905E-04   4.906868026504337E-04   4.968588828192006E-04
   5.031085981992763E-04   5.094369253214020E-04   5.158448529995671E-04
   5.223333824855079E-04   5.289035276251572E-04   5.355563150170613E-04
   5.422927841727838E-04   5.491139876793369E-04   5.560209913636461E-04
   5.630148744590888E-04   5.700967297741293E-04   5.772676638630670E-04
   5.845287971989439E-04   5.918812643486163E-04   5.993262141500343E-04
   6.068648098917530E-04   6.144982294946922E-04   6.222276656961970E-04
   6.300543262363987E-04   6.379794340469298E-04   6.460042274420111E-04
   6.541299603119349E-04   6.623579023189959E-04   6.706893390958717E-04
   6.791255724465092E-04   6.876679205495333E-04   6.963177181642141E-04
   7.050763168390279E-04   7.139450851228367E-04   7.229254087787282E-04
   7.320186910005449E-04   7.412263526321337E-04   7.505498323893583E-04
   7.599905870848991E-04   7.695500918558847E-04   7.792298403943847E-04
   7.890313451808015E-04   7.989561377202000E-04   8.090057687816061E-04
   8.191818086403190E-04   8.294858473232705E-04   8.399194948574681E-04
   8.504843815215671E-04   8.611821581006026E-04   8.720144961439298E-04
   8.829830882264071E-04   8.940896482128624E-04   9.053359115258909E-04
   9.167236354170155E-04   9.282545992412624E-04   9.399306047351898E-04
   9.517534762984102E-04   9.637250612786602E-04   9.758472302604489E-04
   9.881218773573422E-04   1.000550920507922E-03   1.013136301775468E-03
   1.025879987651408E-03   1.038783969362588E-03   1.051850263182403E-03
   1.065080910745847E-03   1.078477979368518E-03   1.092043562369646E-03
   1.105779779399175E-03   1.119688776768960E-03   1.133772727788141E-03
   1.148033833102717E-03   1.162474321039408E-03   1.177096447953834E-03
   1.191902498583074E-03   1.206894786402663E-03   1.222075653988073E-03
   1.237447473380751E-03   1.253012646458751E-03   1.268773605312034E-03
   1.284732812622488E-03   1.300892762048723E-03   1.317255978615715E-03
   1.333825019109344E-03   1.350602472475896E-03   1.367590960226595E-03
   1.384793136847215E-03   1.402211690212851E-03   1.419849342007904E-03
   1.437708848151352E-03   1.455792999227365E-03   1.474104620921341E-03
   1.492646574461426E-03   1.511421757065583E-03   1.530433102394292E-03
   1.549683581008942E-03   1.569176200835979E-03   1.588914007636912E-03
   1.608900085484208E-03   1.629137557243193E-03   1.649629585060004E-03
   1.670379370855678E-03   1.691390156826462E-03   1.712665225950410E-03
   1.734207902500356E-03   1.756021552563342E-03   1.778109584566569E-03
   1.800475449809978E-03   1.823122643005515E-03   1.846054702823193E-03
   1.869275212444014E-03   1.892787800119850E-03   1.916596139740362E-03
   1.940703951407053E-03   1.965115002014545E-03   1.989833105839157E-03
   2.014862125134906E-03   2.040205970736975E-03   2.065868602672803E-03
   2.091854030780841E-03   2.118166315337097E-03   2.144809567689570E-03
   2.171787950900642E-03   2.199105680397580E-03   2.226767024631195E-03
   2.254776305742799E-03   2.283137900239556E-03   2.311856239678306E-03
   2.340935811358013E-03   2.370381159020916E-03   2.400196883562491E-03
   2.430387643750364E-03   2.460958156952235E-03   2.491913199872988E-03
   2.523257609301058E-03   2.554996282864186E-03   2.587134179794695E-03
   2.619676321704362E-03   2.652627793369068E-03   2.685993743523301E-03
   2.719779385664655E-03   2.753989998868454E-03   2.788630928612613E-03
   2.823707587612881E-03   2.859225456668592E-03   2.895190085519044E-03
   2.931607093710671E-03   2.968482171475092E-03   3.005821080618229E-03
   3.043629655420603E-03   3.081913803548946E-03   3.120679506979300E-03
   3.159932822931690E-03   3.199679884816597E-03   3.239926903193305E-03
   3.280680166740318E-03   3.321946043237982E-03   3.363730980563453E-03
   3.406041507698202E-03   3.448884235748174E-03   3.492265858976787E-03
   3.536193155850939E-03   3.580672990100134E-03   3.625712311788967E-03
   3.671318158403087E-03   3.717497655948809E-03   3.764258020066583E-03
   3.811606557158436E-03   3.859550665529618E-03   3.908097836544606E-03
   3.957255655797642E-03   4.007031804297990E-03   4.057434059670135E-03
   4.108470297369015E-03   4.160148491910608E-03   4.212476718117949E-03
   4.265463152382844E-03   4.319116073943453E-03   4.373443866177927E-03
   4.428455017914332E-03   4.484158124757047E-03   4.540561890429842E-03
   4.597675128135865E-03   4.655506761934704E-03   4.714065828136796E-03
   4.773361476715375E-03   4.833402972736168E-03   4.894199697805088E-03
   4.955761151534117E-03   5.018096953025649E-03   5.081216842375488E-03
   5.145130682194759E-03   5.209848459150979E-03   5.275380285528459E-03
   5.341736400808397E-03   5.408927173268810E-03   5.476963101604588E-03
   5.545854816567965E-03   5.615613082629560E-03   5.686248799660370E-03
   5.757773004634889E-03   5.830196873355657E-03   5.903531722199520E-03
   5.977789009885806E-03   6.052980339266793E-03   6.129117459140673E-03
   6.206212266087327E-03   6.284276806327197E-03   6.363323277603518E-03
   6.443364031088245E-03   6.524411573311956E-03   6.606478568118010E-03
   6.689577838641323E-03   6.773722369311975E-03   6.858925307884079E-03
   6.945199967490131E-03   7.032559828721217E-03   7.121018541733399E-03
   7.210589928380552E-03   7.301287984374074E-03   7.393126881469743E-03
   7.486120969682064E-03   7.580284779526539E-03   7.675633024290023E-03
   7.772180602329750E-03   7.869942599401214E-03   7.968934291015351E-03
   8.069171144825390E-03   8.170668823043662E-03   8.273443184888889E-03
   8.377510289064208E-03   8.482886396266362E-03   8.589587971726506E-03
   8.697631687782885E-03   8.807034426485951E-03   8.917813282236205E-03
   9.029985564455232E-03   9.143568800290361E-03   9.258580737353273E-03
   9.375039346493122E-03   9.492962824604528E-03   9.612369597470851E-03
   9.733278322643309E-03   9.855707892356185E-03   9.979677436478837E-03
   1.010520632550475E-02   1.023231417357822E-02   1.036102084155912E-02
   1.049134644012618E-02   1.062331133291931E-02   1.075693613972151E-02
   1.089224173968069E-02   1.102924927457214E-02   1.116798015210192E-02
   1.130845604925191E-02   1.145069891566682E-02   1.159473097708392E-02
   1.174057473880586E-02   1.188825298921713E-02   1.203778880334480E-02
   1.218920554646407E-02   1.234252687774909E-02   1.249777675396984E-02
   1.265497943323532E-02   1.281415947878399E-02   1.297534176282184E-02
   1.313855147040865E-02   1.330381410339332E-02   1.347115548439847E-02
   1.364060176085533E-02   1.381217940908934E-02   1.398591523845711E-02
   1.416183639553546E-02   1.433997036836310E-02   1.452034499073569E-02
   1.470298844655496E-02   1.488792927423244E-02   1.507519637114877E-02
   1.526481899816881E-02   1.545682678421384E-02   1.565124973089106E-02
   1.584811821718142E-02   1.604746300418649E-02   1.624931523993477E-02
   1.645370646424879E-02   1.666066861367317E-02   1.687023402646481E-02
   1.708243544764586E-02   1.729730603412009E-02   1.751487935985380E-02
   1.773518942112178E-02   1.795827064181932E-02   1.818415787884104E-02
   1.841288642752730E-02   1.864449202717916E-02   1.887901086664278E-02
   1.911647958996394E-02   1.935693530211383E-02   1.960041557478667E-02
   1.984695845227042E-02   2.009660245739129E-02   2.034938659753296E-02
   2.060535037073167E-02   2.086453377184772E-02   2.112697729881484E-02
   2.139272195896806E-02   2.166180927545119E-02   2.193428129370492E-02
   2.221018058803644E-02   2.248955026827180E-02   2.277243398649192E-02
   2.305887594385329E-02   2.334892089749455E-02   2.364261416752979E-02
   2.394000164412999E-02   2.424112979469339E-02   2.454604567110615E-02
   2.485479691709436E-02   2.516743177566835E-02   2.548399909666082E-02
   2.580454834435974E-02   2.612912960523721E-02   2.645779359577564E-02
   2.679059167039222E-02   2.712757582946318E-02   2.746879872744897E-02
   2.781431368112160E-02   2.816417467789560E-02   2.851843638426347E-02
   2.887715415433760E-02   2.924038403849938E-02   2.960818279215716E-02
   2.998060788461455E-02   3.035771750804995E-02   3.073957058660922E-02
   3.112622678561280E-02   3.151774652087841E-02   3.191419096816128E-02
   3.231562207271285E-02   3.272210255895993E-02   3.313369594030548E-02
   3.355046652905271E-02   3.397247944645407E-02   3.439980063288651E-02
   3.483249685815475E-02   3.527063573192436E-02   3.571428571428571E-02
   3.616351612645124E-02   3.661839716158676E-02   3.707899989577949E-02
   3.754539629914374E-02   3.801765924706640E-02   3.849586253159399E-02
   3.898008087296257E-02   3.947038993127315E-02   3.996686631831362E-02
   4.046958760952951E-02   4.097863235614545E-02   4.149408009743870E-02
   4.201601137316754E-02   4.254450773615568E-02   4.307965176503502E-02
   4.362152707714893E-02   4.417021834161733E-02   4.472581129256661E-02
   4.528839274252573E-02   4.585805059599076E-02   4.643487386316041E-02
   4.701895267384364E-02   4.761037829154298E-02   4.820924312771443E-02
   4.881564075620701E-02   4.942966592788399E-02   5.005141458542763E-02
   5.068098387833064E-02   5.131847217807591E-02   5.196397909350719E-02
   5.261760548639342E-02   5.327945348718825E-02   5.394962651098834E-02
   5.462822927369214E-02   5.531536780836190E-02   5.601114948179176E-02
   5.671568301128371E-02   5.742907848163514E-02   5.815144736233968E-02
   5.888290252500458E-02   5.962355826098725E-02   6.037353029925328E-02
   6.113293582445948E-02   6.190189349526416E-02   6.268052346286780E-02
   6.346894738978710E-02   6.426728846886462E-02   6.507567144251822E-02
   6.589422262223218E-02   6.672306990829366E-02   6.756234280977751E-02
   6.841217246478203E-02   6.927269166091983E-02   7.014403485606602E-02
   7.102633819936757E-02   7.191973955251704E-02   7.282437851129342E-02
   7.374039642737455E-02   7.466793643042346E-02   7.560714345045268E-02
   7.655816424046999E-02   7.752114739940867E-02   7.849624339534654E-02
   7.948360458901675E-02   8.048338525761459E-02   8.149574161890372E-02
   8.252083185562517E-02   8.355881614021400E-02   8.460985665982648E-02
   8.567411764168208E-02   8.675176537872460E-02   8.784296825560538E-02
   8.894789677499401E-02   9.006672358421963E-02   9.119962350224739E-02
   9.234677354699453E-02   9.350835296298934E-02   9.468454324937885E-02
   9.587552818828829E-02   9.708149387353733E-02   9.830262873971811E-02
   9.953912359163755E-02   1.007911716341321E-01   1.020589685022559E-01
   1.033427122918486E-01   1.046426035904895E-01   1.059588455088382E-01
   1.072916437123726E-01   1.086412064535238E-01   1.100077446042154E-01
   1.113914716888141E-01   1.127926039174918E-01   1.142113602200098E-01
   1.156479622799273E-01   1.171026345692383E-01   1.185756043834483E-01
   1.200671018770868E-01   1.215773600996721E-01   1.231066150321242E-01
   1.246551056236372E-01   1.262230738290169E-01   1.278107646464850E-01
   1.294184261559622E-01   1.310463095578302E-01   1.326946692121823E-01
   1.343637626785684E-01   1.360538507562379E-01   1.377651975248919E-01
   1.394980703859448E-01   1.412527401043063E-01   1.430294808506903E-01
   1.448285702444527E-01   1.466502893969718E-01   1.484949229555718E-01
   1.503627591479986E-01   1.522540898274579E-01   1.541692105182159E-01
   1.561084204617770E-01   1.580720226636406E-01   1.600603239406451E-01
   1.620736349689110E-01   1.641122703323818E-01   1.661765485719810E-01
   1.682667922353837E-01   1.703833279274144E-01   1.725264863610816E-01
   1.746966024092502E-01   1.768940151569683E-01   1.791190679544487E-01
   1.813721084707172E-01   1.836534887479390E-01   1.859635652564232E-01
   1.883026989503246E-01   1.906712553240421E-01   1.930696044693274E-01
   1.954981211331145E-01   1.979571847760723E-01   2.004471796318984E-01
   2.029684947673553E-01   2.055215241430618E-01   2.081066666750528E-01
   2.107243262971078E-01   2.133749120238686E-01   2.160588380147482E-01
   2.187765236386424E-01   2.215283935394597E-01   2.243148777024702E-01
   2.271364115214939E-01   2.299934358669309E-01   2.328863971546469E-01
   2.358157474157298E-01   2.387819443671169E-01   2.417854514831169E-01
   2.448267380678280E-01   2.479062793284656E-01   2.510245564496179E-01
   2.541820566684285E-01   2.573792733507309E-01   2.606167060681370E-01
   2.638948606760946E-01   2.672142493929316E-01   2.705753908798875E-01
   2.739788103221582E-01   2.774250395109564E-01   2.809146169266033E-01
   2.844480878226707E-01   2.880260043111741E-01   2.916489254488445E-01
   2.953174173244812E-01   2.990320531474023E-01   3.027934133370137E-01
   3.066020856134963E-01   3.104586650896429E-01   3.143637543638433E-01
   3.183179636142406E-01   3.223219106940761E-01   3.263762212282260E-01
   3.304815287109603E-01   3.346384746049263E-01   3.388477084413760E-01
   3.431098879216611E-01   3.474256790199960E-01   3.517957560875207E-01
   3.562208019576688E-01   3.607015080528591E-01   3.652385744925361E-01
   3.698327102025605E-01   3.744846330259847E-01   3.791950698352147E-01
   3.839647566455841E-01   3.887944387303625E-01   3.936848707372002E-01
   3.986368168060487E-01   4.036510506885568E-01   4.087283558689686E-01
   4.138695256865501E-01   4.190753634595433E-01   4.243466826106927E-01
   4.296843067943407E-01   4.350890700251240E-01   4.405618168082953E-01
   4.461034022716719E-01   4.517146922992579E-01   4.573965636665372E-01
   4.631499041774690E-01   4.689756128032153E-01   4.748745998225996E-01
   4.808477869643468E-01   4.868961075510987E-01   4.930205066452534E-01
   4.992219411966303E-01   5.055013801919931E-01   5.118598048064624E-01
   5.182982085568187E-01   5.248175974567479E-01   5.314189901740304E-01
   5.381034181897069E-01   5.448719259592564E-01   5.517255710757867E-01
   5.586654244352919E-01   5.656925704039797E-01   5.728081069877027E-01
   5.800131460035306E-01   5.873088132534665E-01   5.946962487003623E-01
   6.021766066460374E-01   6.097510559116379E-01   6.174207800202737E-01
   6.251869773819390E-01   6.330508614807729E-01   6.410136610646663E-01
   6.490766203372524E-01   6.572409991523240E-01   6.655080732106792E-01
   6.738791342594601E-01   6.823554902939881E-01   6.909384657621364E-01
   6.996294017712864E-01   7.084296562978690E-01   7.173406043995596E-01
   7.263636384301295E-01   7.355001682570013E-01   7.447516214815513E-01
   7.541194436621652E-01   7.636050985401194E-01   7.732100682682884E-01
   7.829358536427311E-01   7.927839743372023E-01   8.027559691405938E-01
   8.128533961973832E-01   8.230778332510928E-01   8.334308778908115E-01
   8.439141478008303E-01   8.545292810133983E-01   8.652779361646779E-01
   8.761617927539062E-01   8.871825514058160E-01   8.983419341363713E-01
   9.096416846218248E-01   9.210835684711808E-01   9.326693735020711E-01
   9.444009100201001E-01   9.562800111017199E-01   9.683085328806396E-01
   9.804883548378607E-01   9.928213800953462E-01   1.005309535713381E+00
   1.017954772991690E+00   1.030759067774323E+00   1.043724420758391E+00
   1.056852857806678E+00   1.070146430264179E+00   1.083607215278641E+00
   1.097237316125105E+00   1.111038862534559E+00   1.125014011026713E+00
   1.139164945246946E+00   1.153493876307526E+00   1.168003043133078E+00
   1.182694712810440E+00   1.197571180942892E+00   1.212634772008841E+00
   1.227887839725044E+00   1.243332767414359E+00   1.258971968378162E+00
   1.274807886273425E+00   1.290842995494533E+00   1.307079801559930E+00
   1.323520841503593E+00   1.340168684271464E+00   1.357025931122850E+00
   1.374095216036862E+00   1.391379206124001E+00   1.408880602042877E+00
   1.426602138422212E+00   1.444546584288123E+00   1.462716743496779E+00
   1.481115455172529E+00   1.499745594151500E+00   1.518610071430814E+00
   1.537711834623427E+00   1.557053868418697E+00   1.576639195048760E+00
   1.596470874760745E+00   1.616552006294956E+00   1.636885727369054E+00
   1.657475215168321E+00   1.678323686842120E+00   1.699434400006561E+00
   1.720810653253529E+00   1.742455786666088E+00   1.764373182340364E+00
   1.786566264914029E+00   1.809038502101381E+00   1.831793405235204E+00
   1.854834529815410E+00   1.878165476064588E+00   1.901789889490560E+00
   1.925711461455984E+00   1.949933929755151E+00   1.974461079198017E+00
   1.999296742201577E+00   2.024444799388710E+00   2.049909180194509E+00
   2.075693863480285E+00   2.101802878155266E+00   2.128240303806107E+00
   2.155010271334359E+00   2.182116963601906E+00   2.209564616084567E+00
   2.237357517533890E+00   2.265500010647262E+00   2.293996492746498E+00
   2.322851416464893E+00   2.352069290442989E+00   2.381654680033043E+00
   2.411612208012362E+00   2.441946555305651E+00   2.472662461716380E+00
   2.503764726667423E+00   2.535258209950962E+00   2.567147832487824E+00
   2.599438577096419E+00   2.632135489271280E+00   2.665243677971461E+00
   2.698768316418810E+00   2.732714642906282E+00   2.767087961616463E+00
   2.801893643450327E+00   2.837137126866476E+00   2.872823918730904E+00
   2.908959595177433E+00   2.945549802479040E+00   2.982600257930045E+00
   3.020116750739500E+00   3.058105142935738E+00   3.096571370282318E+00
   3.135521443205533E+00   3.174961447733512E+00   3.214897546447208E+00
   3.255335979443302E+00   3.296283065309210E+00   3.337745202110419E+00
   3.379728868390148E+00   3.422240624181674E+00   3.465287112033337E+00
   3.508875058046431E+00   3.553011272926212E+00   3.597702653046040E+00
   3.642956181524989E+00   3.688778929318959E+00   3.735178056325508E+00
   3.782160812502644E+00   3.829734539001592E+00   3.877906669313914E+00
   3.926684730432986E+00   3.976076344030084E+00   4.026089227645334E+00
   4.076731195893537E+00   4.128010161685274E+00   4.179934137463283E+00
   4.232511236454405E+00   4.285749673937342E+00   4.339657768526249E+00
   4.394243943470591E+00   4.449516727971266E+00   4.505484758513292E+00
   4.562156780215322E+00   4.619541648196035E+00   4.677648328957807E+00
   4.736485901787738E+00   4.796063560176269E+00   4.856390613253754E+00
   4.917476487244954E+00   4.979330726941970E+00   5.041962997195607E+00
   5.105383084425500E+00   5.169600898149326E+00   5.234626472531113E+00
   5.300469967949164E+00   5.367141672583607E+00   5.434652004023915E+00
   5.503011510896747E+00   5.572230874514111E+00   5.642320910542409E+00
   5.713292570692381E+00   5.785156944430298E+00   5.857925260710785E+00
   5.931608889731289E+00   6.006219344708766E+00   6.081768283678612E+00
   6.158267511316226E+00   6.235728980781587E+00   6.314164795586874E+00
   6.393587211487739E+00   6.474008638398263E+00   6.555441642330000E+00
   6.637898947355511E+00   6.721393437596446E+00   6.805938159236786E+00
   6.891546322561307E+00   6.978231304019677E+00   7.066006648316633E+00
   7.154886070528280E+00   7.244883458245175E+00   7.336012873742263E+00
   7.428288556176094E+00   7.521724923809813E+00   7.616336576265931E+00
   7.712138296807646E+00   7.809145054648721E+00   7.907372007292399E+00
   8.006834502899903E+00   8.107548082688504E+00   8.209528483359959E+00
   8.312791639559368E+00   8.417353686364951E+00   8.523230961809281E+00
   8.630440009432027E+00   8.738997580865014E+00   8.848920638449654E+00
   8.960226357887306E+00   9.072932130923117E+00   9.187055568063391E+00
   9.302614501327385E+00   9.419626987033544E+00   9.538111308620790E+00
   9.658085979505463E+00   9.779569745973948E+00   9.902581590111927E+00
   1.002714073277034E+01   1.015326663656860E+01   1.028097900893583E+01
   1.041029780519001E+01   1.054124323165615E+01   1.067383574882359E+01
   1.080809607454285E+01   1.094404518726302E+01   1.108170432930951E+01
   1.122109501020337E+01   1.136223901002207E+01   1.150515838280273E+01
   1.164987545998815E+01   1.179641285391603E+01   1.194479346135232E+01
   1.209504046706884E+01   1.224717734746587E+01   1.240122787424054E+01
   1.255721611810103E+01   1.271516645252782E+01   1.287510355758206E+01
   1.303705242376175E+01   1.320103835590676E+01   1.336708697715258E+01
   1.353522423293413E+01   1.370547639503972E+01   1.387787006571603E+01
   1.405243218182487E+01   1.422919001905200E+01   1.440817119616911E+01
   1.458940367934930E+01   1.477291578653674E+01   1.495873619187158E+01
   1.514689393017016E+01   1.533741840146193E+01   1.553033937558317E+01
   1.572568699682853E+01   1.592349178866134E+01   1.612378465848270E+01
   1.632659690246103E+01   1.653196021042213E+01   1.673990667080061E+01
   1.695046877565403E+01   1.716367942573962E+01   1.737957193565526E+01
   1.759818003904488E+01   1.781953789386936E+01   1.804368008774391E+01
   1.827064164334229E+01   1.850045802386936E+01   1.873316513860216E+01
   1.896879934850076E+01   1.920739747188991E+01   1.944899679021177E+01
   1.969363505385138E+01   1.994135048803522E+01   2.019218179880376E+01
   2.044616817905971E+01   2.070334931469166E+01   2.096376539077531E+01
   2.122745709785244E+01   2.149446563828865E+01   2.176483273271172E+01
   2.203860062653013E+01   2.231581209653432E+01   2.259651045758050E+01
   2.288073956935860E+01   2.316854384324568E+01   2.345996824924499E+01
   2.375505832301292E+01   2.405386017297391E+01   2.435642048752484E+01
   2.466278654233051E+01   2.497300620771021E+01   2.528712795611784E+01
   2.560520086971571E+01   2.592727464804362E+01   2.625339961578478E+01
   2.658362673062882E+01   2.691800759123433E+01   2.725659444529113E+01
   2.759944019768393E+01   2.794659841875916E+01   2.829812335269508E+01
   2.865406992597782E+01   2.901449375598371E+01   2.937945115966937E+01
   2.974899916237174E+01   3.012319550671798E+01   3.050209866164827E+01